8
Lattice="5.186340509230213 2.2997350323427723e-16 1.703047915667485 0.0 6.165561016006872 3.775317281600259e-16 0.0 0.0 5.01412133302125" Properties=species:S:1:pos:R:3:mace_forces:R:3 mace_energy=-27.43767722588652 pbc="T T T"
Al       2.59317025       0.00000000       3.35858462       0.00000000       0.00000000       0.00000000
Al       2.59317025       3.08278051       0.85152396       0.00000000      -0.00000000       0.00000000
Al       2.59317025       0.00000000       0.85152396       0.00000000      -0.00000000       0.00000000
Al       2.59317025       3.08278051       3.35858462       0.00000000      -0.00000000       0.00000000
Al       0.00000000       0.00000000       2.50706067      -0.00000000      -0.00000000      -0.00000000
Al       0.00000000       3.08278051       0.00000000      -0.00000000       0.00000000      -0.00000000
Al       0.00000000       0.00000000       0.00000000      -0.00000000      -0.00000000      -0.00000000
Al       0.00000000       3.08278051       2.50706067      -0.00000000       0.00000000      -0.00000000
6
Lattice="2.724110432353616 -1.5727658914216271 1.9260827147376301e-16 0.0 3.1455317828432556 1.9260827147376301e-16 0.0 0.0 19.44769411336813" Properties=species:S:1:pos:R:3:mace_forces:R:3 mace_energy=-18.453427610139812 pbc="T T T"
Al       0.00000000       0.00000000       0.00000000       0.00000000       0.00000000      -0.00000000
Al       1.81607362       0.00000000       6.48256470       0.00000000       0.00000000      -0.00000000
Al       0.90803681       1.57276589      12.96512941      -0.00000000       0.00000000      -0.00000000
Al       0.00000000       0.00000000       9.72384706      -0.00000000       0.00000000       0.00000000
Al       1.81607362       0.00000000      16.20641176       0.00000000      -0.00000000       0.00000000
Al       0.90803681       1.57276589       3.24128235      -0.00000000      -0.00000000       0.00000000
6
Lattice="5.580516505849943 3.417080838239052e-16 3.417080838239052e-16 0.0 4.309127556655132 2.638579634687681e-16 0.0 0.0 3.9987011009587645" Properties=species:S:1:pos:R:3:mace_forces:R:3 mace_energy=-16.08625819916819 pbc="T T T"
Al       0.00000000       2.15456378       1.99935055      -0.00000000      -0.00000000       0.00000000
Al       2.79025825       0.00000000       0.00000000      -0.00000000      -0.00000000      -0.00000000
Cu       0.00000000       0.00000000       1.99935055       0.00000000      -0.00000000      -0.00000000
Cu       2.79025825       2.15456378       0.00000000       0.00000000       0.00000000      -0.00000000
Cu       0.00000000       2.15456378       0.00000000      -0.00000000       0.00000000      -0.00000000
Cu       2.79025825       0.00000000       1.99935055       0.00000000       0.00000000       0.00000000
2
Lattice="2.411994143183102 -1.3925654678505637 1.70540084280633e-16 0.0 2.7851309357011287 1.70540084280633e-16 0.0 0.0 7.418455136566589" Properties=species:S:1:pos:R:3:mace_forces:R:3 mace_energy=-6.465619474291317 pbc="T T T"
Al       0.80399805       1.39256547       1.26847965      -0.00000000       0.00000000      -0.00000000
Al       1.60799610       0.00000000       4.97770722       0.00000000      -0.00000000       0.00000000
4
Lattice="3.0629748785021955 -1.7684093706243027 2.1656768753172388e-16 0.0 3.536818741248607 2.1656768753172388e-16 0.0 0.0 7.203201433183297" Properties=species:S:1:pos:R:3:mace_forces:R:3 mace_energy=1.6844428733244854 pbc="T T T"
Al       0.00000000       0.00000000       0.00000000       0.00000000       0.00000000      -0.00000000
Al       1.05930670      -0.61159101       3.60160072      -1.83106896       1.05716816      -0.00000000
Al       0.00000000       1.22318202       3.60160072       0.00000000      -2.11433632      -0.00000000
Al       2.00366818       1.15681836       3.60160072       1.83106896       1.05716816       0.00000000
6
Lattice="3.584188434442836 -2.0693321574519135 2.5342010029961737e-16 0.0 4.138664314903829 2.5342010029961737e-16 0.0 0.0 7.125599111587391" Properties=species:S:1:pos:R:3:mace_forces:R:3 mace_energy=-17.81316667145117 pbc="T T T"
Al       1.19472948       2.06933216       4.69516178      -0.00000000       0.00000000       3.25060928
Al       1.19472948       2.06933216       2.43043734      -0.00000000       0.00000000      -3.25060928
Al       2.38945896       0.00000000       2.43043734       0.00000000      -0.00000000      -3.25060928
Al       2.38945896       0.00000000       4.69516178       0.00000000      -0.00000000       3.25060928
Cu       0.00000000       0.00000000       3.56279956      -0.00000000      -0.00000000      -0.00000000
Cu       0.00000000       0.00000000       0.00000000       0.00000000       0.00000000      -0.00000000
8
Lattice="5.423093802866251 3.320687233578001e-16 3.320687233578001e-16 0.0 5.004120474377113 3.064140060746833e-16 0.0 0.0 4.652023664959336" Properties=species:S:1:pos:R:3:mace_forces:R:3 mace_energy=-9.783993430803118 pbc="T T T"
Al       2.71154690       0.00000000       0.00000000      -0.00000000       0.00000000      -0.00000000
Al       0.00000000       2.50206024       0.00000000       0.00000000      -0.00000000       0.00000000
Cu       0.00000000       0.80608194       0.00000000      -0.00000000      -4.62809336      -0.00000000
Cu       0.00000000       4.19803853       0.00000000      -0.00000000       4.62809336       0.00000000
Cu       2.71154690       3.30814218       0.00000000       0.00000000      -4.62809336      -0.00000000
Cu       2.71154690       1.69597829       0.00000000       0.00000000       4.62809336       0.00000000
Cu       2.71154690       0.00000000       2.32601183       0.00000000       0.00000000      -0.00000000
Cu       0.00000000       2.50206024       2.32601183       0.00000000       0.00000000      -0.00000000
6
Lattice="4.3217045238690215 -2.4951372702138017 3.055661871400598e-16 0.0 4.990274540427605 3.055661871400598e-16 0.0 0.0 5.422608049932933" Properties=species:S:1:pos:R:3:mace_forces:R:3 mace_energy=-10.439919688655944 pbc="T T T"
Al       0.00000000       0.00000000       0.52682412      -0.00000000      -0.00000000       0.14155079
Al       0.00000000       0.00000000       4.14189615      -0.00000000       0.00000000       0.14155079
Al       0.00000000       0.00000000       2.33436013      -0.00000000       0.00000000       0.14155079
Cu       2.16085226       1.24756864       3.42816063       0.00000000       0.00000000      -0.14155079
Cu       2.16085226      -1.24756864       1.62062462       0.00000000      -0.00000000      -0.14155079
Cu       0.00000000       2.49513727       5.23569665       0.00000000       0.00000000      -0.14155079
2
Lattice="3.4271653940477123 2.4184698922302217e-16 -0.48793552744460006 0.0 3.5216575153066563 2.1563933019067588e-16 0.0 0.0 2.7565690455412994" Properties=species:S:1:pos:R:3:mace_forces:R:3 mace_energy=-4.852833763410315 pbc="T T T"
Al       2.77698813       1.76082876       1.62335686       3.57831613       0.00000000      -4.28718743
Cu       2.23129349       0.00000000       2.18666517      -3.57831613      -0.00000000       4.28718743
8
Lattice="4.7829021508967005 2.9286829048653176e-16 2.9286829048653176e-16 0.0 5.748605963279356 3.520005946244725e-16 0.0 0.0 6.377380886268615" Properties=species:S:1:pos:R:3:mace_forces:R:3 mace_energy=-14.054068342547442 pbc="T T T"
Al       3.44636316       2.28779252       2.13889268      -6.47677771       9.82520389      -3.32774983
Al       1.33653899       3.46081344       5.32758313       6.47677771      -9.82520389      -3.32774983
Al       1.05491208       3.46081344       2.13889268      -6.47677771      -9.82520389      -3.32774983
Al       3.72799007       2.28779252       5.32758313       6.47677771       9.82520389      -3.32774983
Al       0.41351863       4.98340457       5.81160081      -6.34833745      10.57243552       3.32774983
Al       4.36938352       0.76520139       2.62291036       6.34833745     -10.57243552       3.32774983
Al       2.80496970       0.76520139       5.81160081      -6.34833745     -10.57243552       3.32774983
Al       1.97793245       4.98340457       2.62291036       6.34833745      10.57243552       3.32774983
4
Lattice="4.12924337559986 2.5284323414143903e-16 2.5284323414143903e-16 0.0 4.12924337559986 2.5284323414143903e-16 0.0 0.0 3.709552608235485" Properties=species:S:1:pos:R:3:mace_forces:R:3 mace_energy=-9.937201110576137 pbc="T T T"
Al       2.06462169       2.06462169       1.85477630      -0.00000000      -0.00000000      -0.00000000
Cu       0.00000000       2.06462169       1.85477630      -0.00000000       0.00000000       0.00000000
Cu       2.06462169       0.00000000       1.85477630       0.00000000       0.00000000       0.00000000
Cu       0.00000000       0.00000000       1.85477630       0.00000000      -0.00000000      -0.00000000
8
Lattice="2.4580774292151317 1.5051383278723328e-16 1.5051383278723328e-16 0.0 2.4580774292151317 1.5051383278723328e-16 0.0 0.0 17.18658270175916" Properties=species:S:1:pos:R:3:mace_forces:R:3 mace_energy=-7.154187371576544 pbc="T T T"
Al       1.84355807       0.61451936      16.46835482       0.00000000       0.00000000      -8.65164427
Al       0.61451936       1.84355807       7.87506347      -0.00000000      -0.00000000      -8.65164427
Al       0.61451936       1.84355807       0.71822788      -0.00000000      -0.00000000       8.65164427
Al       1.84355807       0.61451936       9.31151923       0.00000000       0.00000000       8.65164427
Al       1.84355807       0.61451936      12.88993703       0.00000000       0.00000000       0.00000000
Al       0.61451936       1.84355807       4.29664568      -0.00000000      -0.00000000      -0.00000000
Cu       1.84355807       0.61451936       4.29664568       0.00000000       0.00000000       0.00000000
Cu       0.61451936       1.84355807      12.88993703      -0.00000000      -0.00000000      -0.00000000
2
Lattice="2.793231216901841 1.710360834528653e-16 1.710360834528653e-16 0.0 3.4984260298802177 2.1421681197732957e-16 0.0 0.0 2.561657313556035" Properties=species:S:1:pos:R:3:mace_forces:R:3 mace_energy=-6.422470329756081 pbc="T T T"
Al       0.69830780       0.87460651       0.75131353       0.00000000      -0.00000000      -1.46622389
Al       2.09492341       2.62381952       1.81034378      -0.00000000       0.00000000       1.46622389
5
Lattice="2.608873168987204 -1.5062336263963534 1.8446041893344052e-16 0.0 3.012467252792708 1.8446041893344052e-16 0.0 0.0 10.848822042844338" Properties=species:S:1:pos:R:3:mace_forces:R:3 mace_energy=-8.308808291240169 pbc="T T T"
Al       0.86962439       1.50623363       7.16001032      -0.00000000      -0.00000000       9.95655649
Al       0.00000000       0.00000000       6.10999626      -0.00000000       0.00000000     -10.44800493
Al       1.73924878       0.00000000       2.75812489       0.00000000      -0.00000000      -0.39854235
Al       1.73924878       0.00000000       9.44781914       0.00000000       0.00000000      -9.23937386
Al       0.00000000       0.00000000      10.66862871      -0.00000000      -0.00000000      10.12936465
6
Lattice="4.407542604087041 2.6988414711003924e-16 2.6988414711003924e-16 0.0 4.407542604087041 2.6988414711003924e-16 0.0 0.0 5.855195010368359" Properties=species:S:1:pos:R:3:mace_forces:R:3 mace_energy=14.237530642749064 pbc="T T T"
Al       0.00000000       2.20377130       5.01837961       0.00000000       0.00000000       0.49807601
Al       2.20377130       0.00000000       2.09078211       0.00000000      -0.00000000       0.49807601
Al       2.20377130       2.20377130       3.65570576       0.00000000       0.00000000      -2.35471310
Al       2.20377130       2.20377130       0.72810826      -0.00000000      -0.00000000      -2.35471310
Al       2.20377130       2.20377130       2.20086770      -0.00000000      -0.00000000       1.85663709
Al       2.20377130       2.20377130       5.12846520       0.00000000       0.00000000       1.85663709
4
Lattice="4.998154457089707 2.7936936967961095e-16 0.4565110419511266 0.0 2.3215273689704983 1.4215255307713486e-16 0.0 0.0 6.415633067081154" Properties=species:S:1:pos:R:3:mace_forces:R:3 mace_energy=-12.884365003964035 pbc="T T T"
Al       0.00000000       1.16076368       3.20781653       0.00000000       0.00000000       0.00000000
Al       2.49907723       0.00000000       3.43607205      -0.00000000      -0.00000000      -0.00000000
Al       0.00000000       0.00000000       0.00000000      -0.00000000       0.00000000       0.00000000
Al       2.49907723       1.16076368       0.22825552      -0.00000000      -0.00000000       0.00000000
8
Lattice="5.346507997711981 3.2737919530068514e-16 3.2737919530068514e-16 0.0 5.346507997711981 3.2737919530068514e-16 0.0 0.0 5.538135244326418" Properties=species:S:1:pos:R:3:mace_forces:R:3 mace_energy=-28.956352263114226 pbc="T T T"
Al       0.00000000       1.33662700       2.07680072       0.00000000       0.00000000       0.00000000
Al       0.00000000       4.00988100       3.46133453       0.00000000       0.00000000      -0.00000000
Al       2.67325400       4.00988100       4.84586834       0.00000000      -0.00000000      -0.00000000
Al       2.67325400       1.33662700       0.69226691      -0.00000000      -0.00000000       0.00000000
Cu       0.00000000       4.00988100       0.69226691      -0.00000000      -0.00000000      -0.00000000
Cu       2.67325400       4.00988100       2.07680072      -0.00000000      -0.00000000       0.00000000
Cu       2.67325400       1.33662700       3.46133453      -0.00000000      -0.00000000       0.00000000
Cu       0.00000000       1.33662700       4.84586834      -0.00000000       0.00000000       0.00000000
6
Lattice="4.967771553676076 3.04188276605234e-16 3.04188276605234e-16 0.0 4.967771553676076 3.04188276605234e-16 0.0 0.0 3.6238625572793586" Properties=species:S:1:pos:R:3:mace_forces:R:3 mace_energy=-15.359812301257715 pbc="T T T"
Al       0.00000000       0.00000000       1.81193128      -0.00000000      -0.00000000       0.00000000
Al       2.48388578       2.48388578       0.00000000       0.00000000       0.00000000      -0.00000000
Cu       0.00000000       2.48388578       0.00000000      -0.00000000      -0.00000000      -0.00000000
Cu       2.48388578       0.00000000       0.00000000      -0.00000000       0.00000000      -0.00000000
Cu       2.48388578       0.00000000       1.81193128       0.00000000       0.00000000       0.00000000
Cu       0.00000000       2.48388578       1.81193128       0.00000000       0.00000000       0.00000000
4
Lattice="3.025484321354036 1.8525748450083612e-16 1.8525748450083612e-16 0.0 3.025484321354036 1.8525748450083612e-16 0.0 0.0 5.786550579100037" Properties=species:S:1:pos:R:3:mace_forces:R:3 mace_energy=-9.332424756901993 pbc="T T T"
Al       1.51274216       0.00000000       3.84879998       0.00000000       0.00000000       0.54247659
Al       0.00000000       1.51274216       3.84879998      -0.00000000       0.00000000       0.54247659
Cu       0.00000000       0.00000000       1.26391315       0.00000000       0.00000000      -0.54247659
Cu       1.51274216       1.51274216       1.26391315       0.00000000      -0.00000000      -0.54247659
2
Lattice="2.5495247758051924 1.5611336780183511e-16 1.5611336780183511e-16 0.0 2.5495247758051924 1.5611336780183511e-16 0.0 0.0 5.725193695370106" Properties=species:S:1:pos:R:3:mace_forces:R:3 mace_energy=-6.774123124621331 pbc="T T T"
Al       0.00000000       0.00000000       1.43129842       0.00000000       0.00000000       0.00000000
Al       0.00000000       0.00000000       4.29389527      -0.00000000      -0.00000000      -0.00000000
8
Lattice="4.745097784123011 2.905534406483722e-16 2.905534406483722e-16 0.0 3.7946541308092794 2.323555517583433e-16 0.0 0.0 6.55078510801559" Properties=species:S:1:pos:R:3:mace_forces:R:3 mace_energy=-12.686993680250009 pbc="T T T"
Al       1.18627445       3.77313295       6.40447764      -0.00000000       4.03294707       1.43198471
Al       3.55882334       0.02152118       6.40447764       0.00000000      -4.03294707       1.43198471
Cu       1.18627445       2.03037252       6.18613979      -0.00000000      -3.92594854      -0.98717461
Cu       3.55882334       1.76428161       6.18613979      -0.00000000       3.92594854      -0.98717461
Cu       1.18627445       2.62393131       3.60754712      -0.00000000       6.27433859       9.58649001
Cu       3.55882334       1.17072282       3.60754712       0.00000000      -6.27433859       9.58649001
Cu       0.00000000       1.89732707       2.52859829      -0.00000000      -0.00000000     -10.03130011
Cu       2.37254889       1.89732707       2.52859829      -0.00000000       0.00000000     -10.03130011
4
Lattice="5.065797393235078 4.768356892418249e-16 -2.245960412156569 0.0 3.4992127668104644 2.1426498572049945e-16 0.0 0.0 2.9056469460137815" Properties=species:S:1:pos:R:3:mace_forces:R:3 mace_energy=-0.7740373626489205 pbc="T T T"
Al       0.00000000       0.00000000       0.00000000      -0.00000000      -0.00000000      -0.00000000
Cu       2.53289870       1.74960638       0.32984327       0.00000000       0.00000000       0.00000000
Cu       2.53289870       0.00000000      -1.12298021      -0.00000000      -0.00000000      -0.00000000
Cu       2.53289870       0.00000000       0.32984327       0.00000000      -0.00000000       0.00000000
3
Lattice="3.970030263926003 2.4309424276175504e-16 2.4309424276175504e-16 0.0 3.970030263926003 2.4309424276175504e-16 0.0 0.0 2.961499925686609" Properties=species:S:1:pos:R:3:mace_forces:R:3 mace_energy=-11.674157792664456 pbc="T T T"
Al       0.00000000       0.00000000       1.82551866       0.00000000       0.00000000       0.60939701
Cu       1.98501513       0.00000000       0.42315589      -0.00000000       0.00000000      -0.30469851
Cu       0.00000000       1.98501513       0.42315589       0.00000000      -0.00000000      -0.30469851
5
Lattice="4.245242249203773 3.573658382306231e-16 -1.3741295708004406 0.0 4.617715108178193 2.827535013302399e-16 0.0 0.0 3.799092538864232" Properties=species:S:1:pos:R:3:mace_forces:R:3 mace_energy=-9.342037597614196 pbc="T T T"
Al       0.00000000       2.75870760       1.89954627      -0.00000000      14.15222266      -0.00000000
Al       2.12262112       2.87237137      -0.68706479       0.00000000      -9.54357388       0.00000000
Cu       2.12262112       4.57148511      -0.68706479       0.00000000       8.34398980       0.00000000
Cu       3.88255748       1.21879356      -0.45068188      -2.67306043      -6.47631929      -4.08789027
Cu       0.36268477       1.21879356       2.87564485       2.67306043      -6.47631929       4.08789027
6
Lattice="3.9233849346296483 -2.2651673481429486 2.7740299424363616e-16 0.0 4.530334696285899 2.7740299424363616e-16 0.0 0.0 4.629112104641765" Properties=species:S:1:pos:R:3:mace_forces:R:3 mace_energy=-21.17642990519943 pbc="T T T"
Al       0.00000000       0.00000000       3.69817650      -0.00000000      -0.00000000      -0.28886939
Al       0.00000000       0.00000000       1.38362045      -0.00000000      -0.00000000      -0.28886939
Cu       1.30779498       2.26516735       1.73187980      -0.00000000       0.00000000      -4.28836214
Cu       2.61558996       0.00000000       4.04643585       0.00000000      -0.00000000      -4.28836214
Cu       1.30779498       2.26516735       3.69932683      -0.00000000       0.00000000       4.57723153
Cu       2.61558996       0.00000000       1.38477078       0.00000000      -0.00000000       4.57723153
6
Lattice="3.264124175771922 -1.8845429715502835 2.3078995179646974e-16 0.0 3.7690859431005688 2.3078995179646974e-16 0.0 0.0 10.407726503234779" Properties=species:S:1:pos:R:3:mace_forces:R:3 mace_energy=-20.534652996240474 pbc="T T T"
Al       0.00000000       0.00000000       1.16123752      -0.00000000      -0.00000000       1.10814770
Al       0.00000000       0.00000000       6.36510077      -0.00000000       0.00000000       1.10814770
Al       1.08804139       1.88454297       3.17757629       0.00000000      -0.00000000      -0.35447084
Al       2.17608278       0.00000000       8.38143954      -0.00000000       0.00000000      -0.35447084
Cu       1.08804139       1.88454297       5.64098807       0.00000000      -0.00000000      -0.75367686
Cu       2.17608278       0.00000000       0.43712482       0.00000000       0.00000000      -0.75367686
6
Lattice="3.2734268589349047 -1.8899138781786173 2.3144769815756054e-16 0.0 3.7798277563572364 2.3144769815756054e-16 0.0 0.0 7.891677019534608" Properties=species:S:1:pos:R:3:mace_forces:R:3 mace_energy=-18.2972113621366 pbc="T T T"
Al       1.09114229       1.88991388       0.47808357       0.00000000      -0.00000000       6.23211267
Al       2.18228457       0.00000000       6.94088254      -0.00000000       0.00000000       0.61287336
Al       1.09114229       1.88991388       6.04954093       0.00000000      -0.00000000      -7.24622113
Cu       0.00000000       0.00000000       4.36969891      -0.00000000       0.00000000       0.61571476
Cu       0.00000000       0.00000000       0.51580921      -0.00000000       0.00000000       0.81340758
Cu       1.09114229       1.88991388       3.35647242       0.00000000      -0.00000000      -1.02788725
4
Lattice="2.261426007566835 -1.305634914221132 1.5989416185559393e-16 0.0 2.6112698284422655 1.5989416185559393e-16 0.0 0.0 11.693464486894566" Properties=species:S:1:pos:R:3:mace_forces:R:3 mace_energy=-14.031785238875207 pbc="T T T"
Al       0.00000000       0.00000000       0.00000000      -0.00000000      -0.00000000       0.00000000
Al       0.00000000       0.00000000       5.84673224       0.00000000      -0.00000000      -0.00000000
Cu       0.00000000       0.00000000       2.92336612      -0.00000000       0.00000000       0.00000000
Cu       0.00000000       0.00000000       8.77009837      -0.00000000      -0.00000000       0.00000000
6
Lattice="4.629612934230597 2.834820330598343e-16 2.834820330598343e-16 0.0 3.752180059687791 2.2975476499605887e-16 0.0 0.0 4.910573704442194" Properties=species:S:1:pos:R:3:mace_forces:R:3 mace_energy=-19.59231456464811 pbc="T T T"
Al       1.15740323       1.87609003       3.71571345      -0.00000000       0.00000000      -1.34301573
Al       3.47220970       1.87609003       1.19486026       0.00000000       0.00000000       1.34301573
Al       1.15740323       0.00000000       0.26321580      -0.00000000       0.00000000       1.19650731
Al       3.47220970       0.00000000       4.64735790       0.00000000       0.00000000      -1.19650731
Cu       1.15740323       0.00000000       2.41983889       0.00000000      -0.00000000       1.27806682
Cu       3.47220970       0.00000000       2.49073482       0.00000000      -0.00000000      -1.27806682
8
Lattice="5.176152915377296 -2.9884532790597462 3.6597997426019317e-16 0.0 5.976906558119495 3.6597997426019317e-16 0.0 0.0 4.518950807188148" Properties=species:S:1:pos:R:3:mace_forces:R:3 mace_energy=-17.31542788189281 pbc="T T T"
Al       2.58807646      -1.49422664       0.00000000      -0.00000000      -0.00000000      -0.00000000
Al       0.00000000       2.98845328       0.00000000       0.00000000       0.00000000      -0.00000000
Al       2.58807646       1.49422664       0.00000000       0.00000000      -0.00000000       0.00000000
Cu       0.00000000       0.00000000       0.00000000       0.00000000       0.00000000      -0.00000000
Cu       1.72538431       2.98845328       1.53599071       0.00000000      -0.00000000     -15.58893064
Cu       1.72538431       2.98845328       2.98296009       0.00000000      -0.00000000      15.58893064
Cu       3.45076861       0.00000000       2.98296009      -0.00000000       0.00000000      15.58893064
Cu       3.45076861       0.00000000       1.53599071      -0.00000000       0.00000000     -15.58893064
6
Lattice="5.634082131170981 3.44988032403592e-16 3.44988032403592e-16 0.0 6.0245727322651 3.6889868563994396e-16 0.0 0.0 4.178808655399298" Properties=species:S:1:pos:R:3:mace_forces:R:3 mace_energy=5.955190725767871 pbc="T T T"
Al       3.28580088       4.55923176       3.35746054       7.85254019      14.42709116      -0.29239230
Al       2.34828125       1.46534097       3.35746054      -7.85254019     -14.42709116      -0.29239230
Al       3.28580088       1.46534097       1.26805621       7.85254019     -14.42709116      -0.29239230
Al       2.34828125       4.55923176       1.26805621      -7.85254019      14.42709116      -0.29239230
Al       2.81704107       3.01228637       0.34518176       0.00000000       0.00000000       0.58478460
Al       2.81704107       3.01228637       2.43458609       0.00000000       0.00000000       0.58478460
5
Lattice="1.9602728519732933 2.0439900248234883e-16 -1.0934652530688833 0.0 7.575318444480227 4.638544742777308e-16 0.0 0.0 6.857743293265094" Properties=species:S:1:pos:R:3:mace_forces:R:3 mace_energy=-14.553651365261285 pbc="T T T"
Al       1.16909812       3.78765922       3.17926354       0.44101416       0.00000000       0.91796235
Al       1.89743332       3.78765922      -0.15661592      -0.21792996       0.00000000      -0.52936677
Al       1.75917486       0.00000000       0.90003676       0.48737461      -0.00000000       0.30609054
Al       0.28707087       5.99488839       5.97182619      -0.35522940       0.02551223      -0.34734306
Al       0.28707087       1.58043006       5.97182619      -0.35522940      -0.02551223      -0.34734306
4
Lattice="2.8803519444979107 -1.6629719705167298 2.0365533007650806e-16 0.0 3.325943941033461 2.0365533007650806e-16 0.0 0.0 6.055177686078703" Properties=species:S:1:pos:R:3:mace_forces:R:3 mace_energy=-4.46581499820395 pbc="T T T"
Al       1.92023463       0.00000000       0.00000000       0.00000000       0.00000000       0.00000000
Cu       0.00000000       0.00000000       3.02758884      -0.00000000       0.00000000       0.00000000
Cu       1.92023463       0.00000000       3.02758884       0.00000000      -0.00000000      -0.00000000
Cu       0.96011731       1.66297197       3.02758884      -0.00000000      -0.00000000      -0.00000000
3
Lattice="3.665382773228458 2.24439964044204e-16 2.24439964044204e-16 0.0 3.665382773228458 2.24439964044204e-16 0.0 0.0 3.665382773228458" Properties=species:S:1:pos:R:3:mace_forces:R:3 mace_energy=-9.983862426009733 pbc="T T T"
Al       1.83269139       0.00000000       0.00000000      -0.00000000       0.00000000       0.00000000
Al       0.00000000       1.83269139       0.00000000      -0.00000000      -0.00000000       0.00000000
Al       0.00000000       0.00000000       1.83269139       0.00000000      -0.00000000      -0.00000000
3
Lattice="2.6042239426257257 1.5946272577997477e-16 1.5946272577997477e-16 0.0 2.6042239426257257 1.5946272577997477e-16 0.0 0.0 8.479930528847124" Properties=species:S:1:pos:R:3:mace_forces:R:3 mace_energy=-3.2279668434207274 pbc="T T T"
Al       0.00000000       0.00000000       0.00000000      -0.00000000      -0.00000000      -0.00000000
Al       1.30211197       1.30211197       4.23996526      -0.00000000       0.00000000      -0.00000000
Cu       0.00000000       0.00000000       4.23996526       0.00000000      -0.00000000       0.00000000
8
Lattice="2.4878259268670426 1.5233540290867604e-16 1.5233540290867604e-16 0.0 2.4878259268670426 1.5233540290867604e-16 0.0 0.0 13.821991721748612" Properties=species:S:1:pos:R:3:mace_forces:R:3 mace_energy=10.500639002028542 pbc="T T T"
Al       1.24391296       0.00000000       4.08632789      -0.00000000      -0.00000000      -6.00706062
Al       0.00000000       1.24391296       4.08632789       0.00000000       0.00000000      -6.00706062
Al       0.00000000       0.00000000       1.31226540      -0.00000000       0.00000000       9.42641468
Al       1.24391296       1.24391296       1.31226540       0.00000000      -0.00000000       9.42641468
Cu       1.24391296       0.00000000      13.25203940       0.00000000       0.00000000      -5.02379941
Cu       0.00000000       1.24391296      13.25203940       0.00000000       0.00000000      -5.02379941
Cu       1.24391296       0.00000000      10.68963466      -0.00000000      -0.00000000       1.60444534
Cu       0.00000000       1.24391296      10.68963466      -0.00000000      -0.00000000       1.60444534
8
Lattice="5.724770027641401 3.505410645102873e-16 3.505410645102873e-16 0.0 5.724770027641401 3.505410645102873e-16 0.0 0.0 5.724770027641401" Properties=species:S:1:pos:R:3:mace_forces:R:3 mace_energy=-1.4206625049950574 pbc="T T T"
Al       2.86238501       2.86238501       2.86238501       0.00000000       0.00000000       0.00000000
Al       0.99557955       2.86238501       2.86238501      -5.06654901      -0.00000000       0.00000000
Al       4.72919048       2.86238501       2.86238501       5.06654901       0.00000000      -0.00000000
Al       2.86238501       0.99557955       2.86238501       0.00000000      -5.06654901       0.00000000
Al       2.86238501       4.72919048       2.86238501      -0.00000000       5.06654901      -0.00000000
Al       2.86238501       2.86238501       0.99557955      -0.00000000      -0.00000000      -5.06654901
Al       2.86238501       2.86238501       4.72919048      -0.00000000       0.00000000       5.06654901
Cu       0.00000000       0.00000000       0.00000000      -0.00000000      -0.00000000       0.00000000
2
Lattice="3.344731073285269 2.048057101453748e-16 2.048057101453748e-16 0.0 4.234841410731942 2.5930924892747675e-16 0.0 0.0 2.7000304057203794" Properties=species:S:1:pos:R:3:mace_forces:R:3 mace_energy=-6.554069799229141 pbc="T T T"
Al       0.00000000       0.00000000       0.00000000      -0.00000000       0.00000000       0.00000000
Al       0.00000000       2.11742071       1.35001520       0.00000000      -0.00000000      -0.00000000
8